/*---------------------------------------------------------------------------*\
| =========                 |                                                 |
| \\      /  F ield         | OpenFOAM: The Open Source CFD Toolbox           |
|  \\    /   O peration     | Version:  1.0                                   |
|   \\  /    A nd           | Web:      http://www.openfoam.org               |
|    \\/     M anipulation  |                                                 |
\*---------------------------------------------------------------------------*/

FoamFile
{
    version         2.0;
    format          ascii;

    root            "";
    case            "";
    instance        "";
    local           "";

    class           volScalarField;
    object          epsilon;
}

// * * * * * * * * * * * * * * * * * * * * * * * * * * * * * * * * * * * * * //


dimensions          [ 0 2 -3 0 0 0 0 ];

internalField       uniform 5.3e-10;

boundaryField
{
    wand
    {
//        type            zeroGradient;
	type		compressible::epsilonWallFunction;
	value		uniform 5.3e-10;
    }

    frontAndBack {empty;}
    empty {empty;}
    

    wedge1 { type wedge ; }
    wedge2 { type wedge ; }

    defaultFaces
    {
        type            zeroGradient;
    }
}


// ************************************************************************* //
