/*---------------------------------------------------------------------------*\
| =========                 |                                                 |
| \\      /  F ield         | OpenFOAM: The Open Source CFD Toolbox           |
|  \\    /   O peration     | Version:  1.0                                   |
|   \\  /    A nd           | Web:      http://www.openfoam.org               |
|    \\/     M anipulation  |                                                 |
\*---------------------------------------------------------------------------*/

FoamFile
{
    version         2.0;
    format          ascii;

    root            "";
    case            "";
    instance        "";
    local           "";

    class           volScalarField;
    object          k;
}

// * * * * * * * * * * * * * * * * * * * * * * * * * * * * * * * * * * * * * //


dimensions          [ 0 2 -2 0 0 0 0 ];

internalField       uniform 0.1e-6;

boundaryField
{
    wand
    {
        type            compressible::kqRWallFunction;
	value		uniform 0.1e-6;
    }
    right
    {
        //type            zeroGradient;
	type		mixed;
        refValue        1e-2;
        valueFraction   0.05; 	// 0 equals zero gradient, 1 equals refValue
        refGradient     0.0;

    }
    sym1 {type symmetryPlane;}

    frontAndBack {empty;}

    wedge1 {type wedge;}
    wedge2 {type wedge;}

    defaultFaces
    {
        type            zeroGradient;
    }
}


// ************************************************************************* //
