/*--------------------------------*- C++ -*----------------------------------*\
| =========                 |                                                 |
| \\      /  F ield         | OpenFOAM: The Open Source CFD Toolbox           |
|  \\    /   O peration     | Version:  1.5                                   |
|   \\  /    A nd           | Web:      http://www.OpenFOAM.org               |
|    \\/     M anipulation  |                                                 |
\*---------------------------------------------------------------------------*/
FoamFile
{
    version     2.0;
    format      binary;
    class       volScalarField;
    location    "0";
    object      Tu;
}
// * * * * * * * * * * * * * * * * * * * * * * * * * * * * * * * * * * * * * //

dimensions      [0 0 0 1 0 0 0];

internalField   uniform 300.0;

boundaryField
{
    left           
    {
	type		zeroGradient;
/*
	type		mixed;
	refValue	293.0;
	valueFraction	0.01;
	refGradient	0.0;
*/
    }
    right
    {
        type            fixedValue;
	value		uniform 300.0;
    }
    cycle
    {
	type		cyclic;
    }
    wand
    {
	type		zeroGradient;
    }


    empty           
    {
        type            empty;
    }
}


// ************************************************************************* //
